[Molden Format]

[FREQ]
 -252.968424
 -218.952357
 -216.319658
 -209.017317
 -208.075490
 -189.072667
 -174.484727
 -171.871837
 -127.959523
 -124.536361
 -108.315041
 -97.327670
 -93.570946
 -68.134703
 -51.953126
 -46.296641
 -37.117565
 -27.989478
 -19.851238
 -17.590408
 19.357336
 21.410625
 24.633129
 32.866377
 35.348535
 44.229237
 49.289437
 50.177330
 51.658341
 63.039099
 66.725726
 71.187648
 80.313676
 81.338886
 84.032056
 89.285233
 98.393359
 98.530134
 102.535773
 105.669150
 107.016815
 117.625984
 124.511549
 127.519063
 129.815199
 133.731664
 138.153314
 146.855319
 154.658926
 161.137401
 165.416344
 167.844959
 169.519799
 176.909852
 178.368625
 183.855385
 186.427975
 196.422218
 200.769502
 205.539570
 205.639579
 209.650331
 217.732721
 220.812863
 221.388639
 231.845019
 232.642195
 235.973741
 236.778417
 241.424417
 243.900043
 247.117376
 257.779174
 265.135399
 270.555623
 278.463062
 280.103102
 282.438395
 295.604387
 297.427154
 302.884170
 313.439180
 329.261497
 335.688713
 339.504722
 351.276043
 352.536876
 358.424708
 364.294778
 366.635017
 376.089646
 379.120908
 390.579729
 400.410200
 411.951545
 412.739451
 416.142689
 422.587239
 426.793629
 442.715594
 444.434758
 460.662268
 465.237655
 467.152943
 469.369727
 484.745363
 489.204663
 508.241472
 517.286166
 535.474534
 541.445783
 545.698349
 547.595400
 555.449789
 564.482761
 575.872530
 596.698961
 603.039244
 616.352386
 619.747395
 633.692333
 640.134615
 644.128369
 657.153832
 658.759269
 662.983276
 668.433628
 678.549706
 684.374668
 699.792871
 705.301895
 710.408103
 715.974981
 723.912256
 728.798841
 729.403295
 738.466261
 743.620358
 747.122610
 757.252006
 771.587276
 772.923652
 795.559159
 798.733871
 800.461670
 808.637591
 818.305820
 823.717875
 825.015993
 831.136930
 841.241975
 846.748160
 853.370981
 855.552661
 859.570941
 863.901242
 872.511764
 881.434470
 886.585388
 890.309830
 895.644416
 898.298614
 901.750079
 906.895998
 910.062715
 913.261989
 921.378868
 938.019799
 939.342516
 944.250727
 949.579623
 954.711539
 963.700956
 968.199251
 968.886456
 972.625927
 974.377795
 983.041204
 987.478076
 998.589393
 1003.609938
 1007.720143
 1011.542466
 1015.662848
 1019.925230
 1020.654538
 1029.623553
 1031.472282
 1039.751093
 1043.852780
 1049.907204
 1052.168348
 1060.439754
 1060.561610
 1066.147866
 1067.502210
 1067.848652
 1072.327821
 1086.050766
 1086.932626
 1089.881491
 1091.623946
 1092.431708
 1096.700921
 1099.457502
 1109.271832
 1109.442278
 1114.130948
 1116.940149
 1118.630600
 1126.527165
 1127.276278
 1128.574788
 1129.966775
 1136.612615
 1141.176606
 1141.814677
 1142.941354
 1149.234638
 1152.065227
 1153.664360
 1156.540598
 1160.675884
 1173.014896
 1183.782404
 1184.352536
 1194.208303
 1194.697634
 1198.813636
 1203.808523
 1205.694350
 1209.298022
 1214.029033
 1216.305536
 1220.861615
 1223.047050
 1224.632295
 1226.748111
 1238.100484
 1239.155751
 1242.862611
 1249.253493
 1249.731979
 1251.849170
 1255.177720
 1261.086019
 1265.994921
 1272.369021
 1273.309074
 1280.418664
 1285.918054
 1286.156188
 1294.305914
 1298.720310
 1304.893217
 1307.035500
 1309.323985
 1313.805389
 1314.232880
 1318.729988
 1319.582830
 1324.834258
 1325.903695
 1328.539901
 1329.303869
 1331.979113
 1339.832504
 1343.821553
 1344.526082
 1353.140860
 1353.679844
 1357.489987
 1359.789452
 1359.920584
 1363.626329
 1365.071817
 1366.187500
 1372.336267
 1375.389865
 1377.047954
 1378.353480
 1380.313519
 1386.470242
 1393.950516
 1396.109376
 1400.095199
 1400.192335
 1406.254292
 1408.466428
 1411.444669
 1413.781045
 1413.848674
 1414.220477
 1420.840396
 1421.414738
 1428.906840
 1435.023706
 1437.816178
 1438.970684
 1441.976884
 1445.323020
 1449.327210
 1452.062147
 1453.333618
 1456.486878
 1457.928739
 1458.539348
 1459.436741
 1461.583158
 1463.224511
 1464.217969
 1466.980154
 1468.226094
 1469.923237
 1473.197612
 1474.550717
 1475.371709
 1475.781199
 1481.244605
 1481.969434
 1483.032834
 1484.057597
 1486.493376
 1490.619344
 1491.393625
 1495.000372
 1498.747472
 1503.394982
 1509.082203
 1512.734207
 1517.249656
 1520.326381
 1522.410439
 1530.731705
 1541.778366
 1544.506169
 1579.403156
 1627.021515
 1710.659277
 1829.018073
 3008.244319
 3017.958360
 3022.916634
 3024.290691
 3027.114909
 3027.388894
 3027.883513
 3033.595120
 3035.316583
 3036.247279
 3037.792956
 3037.972165
 3040.009947
 3041.861095
 3042.706066
 3043.717394
 3045.895459
 3046.067929
 3047.575110
 3047.829881
 3048.307711
 3049.342068
 3049.597660
 3050.206195
 3050.350144
 3050.938380
 3053.585521
 3054.906044
 3056.094383
 3057.163938
 3057.598524
 3057.818649
 3058.907395
 3059.700403
 3060.708804
 3060.730490
 3062.238594
 3065.159321
 3066.567962
 3066.756536
 3068.410310
 3068.561426
 3070.134551
 3070.280285
 3070.768507
 3071.040685
 3071.346458
 3072.388840
 3072.961036
 3073.159455
 3073.685767
 3074.139663
 3075.361077
 3075.448003
 3078.269639
 3078.816172
 3080.398537
 3080.548057
 3081.195244
 3081.274645
 3082.508110
 3083.541774
 3083.935955
 3085.134132
 3085.199856
 3087.739822
 3088.337428
 3088.659420
 3091.597881
 3093.695458
 3093.774057
 3095.543354
 3099.768861
 3101.536183

[FR-COORD]
Mg   145.854426  201.474718  106.638543
C    149.199898  204.060837  101.732013
C    141.847091  198.476750  102.601653
C    143.430374  198.560285  111.711358
C    149.607004  205.117305  110.889750
N    145.543816  201.384696  102.801688
C    147.064729  202.633219  101.028008
C    146.397042  201.844584   98.316602
C    143.791532  200.539731   98.673037
C    143.707838  200.058981  101.526023
C    141.581075  202.051258   97.560211
C    148.233654  200.266881   96.668923
C    147.748261  200.206414   93.908411
C    149.100201  198.213776   92.200914
O    150.678900  196.632742   92.843739
O    147.917277  198.354764   89.930855
N    143.044750  198.751576  107.068825
C    141.716224  197.805488  105.110148
C    139.987829  195.864046  106.315902
C    140.257407  196.090530  109.007210
C    142.352755  197.788460  109.384804
C    138.204562  194.398208  104.652710
C    138.972941  194.776392  111.054137
O    139.047075  195.174920  113.319958
C    137.036805  192.923431  110.224499
N    146.185624  202.094395  110.847204
C    144.962230  200.570195  112.550930
C    145.675952  201.106193  115.348055
C    147.808887  203.244837  114.990099
C    147.828076  203.622805  112.050788
C    143.360003  201.619758  116.956389
C    150.393203  202.657830  116.190432
C    151.914159  200.551770  114.967247
N    148.461522  204.090912  106.420104
C    150.043262  205.267579  108.171906
C    151.987342  206.768163  107.049225
C    151.815212  206.232698  104.425484
C    149.689213  204.642163  104.277964
C    154.156753  208.051418  108.338096
C    152.897834  206.935680  102.052463
O    154.573605  208.376302  101.571849
C    151.264335  205.322942  100.187636
C    150.297298  207.235303   98.223753
O    148.192233  208.286466   98.075607
O    152.113784  207.313922   96.398790
C    151.376835  208.393790   93.910869
C    148.452194  196.337501   88.199534
C    147.281034  197.014156   85.736577
C    148.419164  197.649894   83.498532
C    151.289407  197.869472   83.152556
C    146.927230  198.001248   81.064979
C    145.982814  195.762504   79.665901
C    143.948178  193.911762   80.851773
C    143.847327  191.142715   79.970326
C    141.456839  190.052610   81.478789
C    146.314257  189.731288   80.733190
C    146.468307  186.891148   80.411104
C    146.953210  186.207804   77.691804
C    146.657090  183.326444   76.964623
C    148.625607  181.718955   78.248448
C    146.559339  182.808338   74.086918
C    144.009841  183.162806   72.983391
C    144.044587  182.660588   70.128812
C    145.096904  184.660334   68.201780
C    143.394287  187.046756   68.371892
C    145.156823  183.433263   65.522943
H    140.597212  197.810793  101.100766
H    142.986648  197.379163  113.344273
H    150.878264  205.917835  112.304485
H    146.074278  203.670801   97.420203
H    143.830719  198.673606   97.801898
H    141.139107  201.573074   95.606032
H    142.054256  204.029479   97.885015
H    139.838984  201.725928   98.610019
H    148.273763  198.260575   97.133605
H    150.148452  200.907823   97.075762
H    148.036812  202.030252   92.995684
H    145.780969  199.664029   93.628467
H    138.462534  192.362144  104.827839
H    138.729185  194.844789  102.711550
H    136.305637  194.991559  105.186416
H    135.763339  193.484011  108.705691
H    135.934157  192.168835  111.792160
H    138.142725  191.335433  109.518793
H    146.745526  199.532613  116.137159
H    146.956569  204.953278  115.763163
H    142.183826  203.254122  116.522531
H    142.219999  199.904887  116.907376
H    144.047355  201.778523  118.891616
H    149.920065  202.058943  118.103622
H    151.401114  204.442856  116.391930
H    152.522865  199.132096  116.329885
H    153.497918  201.144126  113.790962
H    150.618462  199.578951  113.695410
H    155.363985  209.009228  106.971342
H    155.137141  206.507596  109.285806
H    153.223381  209.239418  109.738176
H    152.590194  203.922674   99.463641
H    150.178441  207.083747   92.866641
H    153.020714  208.947233   92.799960
H    150.147818  210.003442   94.286740
H    147.868892  194.429047   88.709797
H    150.509667  196.317504   88.103470
H    145.236883  197.188146   85.552314
H    152.063394  196.011710   82.713811
H    152.239489  198.855425   84.691404
H    151.850650  199.137589   81.629524
H    148.002196  199.010413   79.626656
H    145.424959  199.228174   81.758243
H    145.048966  196.638091   78.052204
H    147.761569  194.907418   79.076270
H    144.598304  193.931096   82.806183
H    142.182038  194.921922   80.530624
H    143.637842  190.884253   77.937571
H    139.841766  191.251567   81.035164
H    140.784913  188.197241   80.888105
H    141.591974  189.939433   83.531043
H    148.067349  190.492920   79.965438
H    146.542817  189.973559   82.765872
H    147.849083  186.139998   81.742283
H    144.645089  186.029936   80.831805
H    148.832902  186.662415   76.982644
H    145.639707  187.279122   76.521415
H    144.845160  182.807834   77.795717
H    150.389440  182.123018   77.264347
H    148.866797  182.325137   80.202209
H    148.388281  179.678811   78.092955
H    147.276882  180.923947   73.666159
H    147.812015  184.192386   73.216305
H    143.606354  185.091085   73.584794
H    142.703013  181.907895   73.963238
H    144.739552  180.828359   69.494191
H    142.061941  182.755383   69.578432
H    146.975961  185.384466   68.634809
H    143.817671  188.324533   66.812780
H    141.487505  186.324845   68.078980
H    143.591893  188.021550   70.175647
H    145.677567  184.504207   63.842270
H    143.368422  182.492567   65.123543
H    146.583532  181.948062   65.561481

[FR-NORM-COORD]
vibration 1
   -0.000153    0.000176   -0.000011
   -0.000109    0.000229    0.000244
   -0.000273    0.000169   -0.000332
   -0.000106    0.000262    0.000142
   -0.000149    0.000066   -0.000346
   -0.000080    0.000263    0.000152
   -0.000170    0.000318    0.000304
   -0.000040    0.000393    0.000430
   -0.000091    0.000416   -0.000052
   -0.000149    0.000219   -0.000075
   -0.000081    0.000326   -0.000212
   -0.000102   -0.000282    0.001472
    0.001668    0.001765    0.001387
    0.000705    0.000885    0.002514
    0.000418    0.000420    0.002283
    0.000192    0.000061    0.003253
   -0.000126    0.000159   -0.000082
   -0.000252    0.000065   -0.000176
   -0.000287   -0.000028   -0.000187
   -0.000361    0.000180    0.000132
   -0.000222    0.000093    0.000010
   -0.000428   -0.000015   -0.000360
   -0.000368    0.000144    0.000176
   -0.000454    0.000142    0.000222
   -0.000401    0.000186   -0.000030
   -0.000099    0.000336   -0.000057
   -0.000199    0.000327    0.000025
   -0.000181    0.000406   -0.000004
   -0.000178    0.000352   -0.000221
   -0.000130    0.000191   -0.000201
   -0.000277    0.000357   -0.000092
   -0.000296    0.000310   -0.000086
   -0.000333    0.000230    0.000079
    0.000084    0.000179    0.000032
   -0.000178    0.000101    0.000011
   -0.000122   -0.000145   -0.000077
   -0.000158    0.000057    0.000199
   -0.000113    0.000134    0.000059
   -0.000443    0.000008   -0.000104
   -0.000165   -0.000029    0.000227
   -0.000164   -0.000127    0.000214
   -0.000123    0.000085    0.000185
    0.000041   -0.000051    0.000048
    0.000090   -0.000026    0.000003
    0.000041   -0.000089    0.000102
    0.000125   -0.000147    0.000058
   -0.003037   -0.004854    0.008434
    0.003781   -0.001737    0.007696
    0.004308    0.001231    0.011195
   -0.006335   -0.001597   -0.042722
    0.006150   -0.002538    0.005943
   -0.001498    0.002038    0.003458
   -0.000552   -0.000198    0.001804
    0.000220    0.000133    0.000356
    0.000182   -0.000407   -0.000057
    0.000233   -0.000013    0.000106
    0.000223   -0.000043    0.000095
    0.000238   -0.000173    0.000129
    0.000225   -0.000203    0.000195
    0.000163   -0.000202    0.000299
    0.000283   -0.000283    0.000206
    0.000316   -0.000279    0.000129
    0.000371   -0.000334    0.000137
    0.000431   -0.000366    0.000134
    0.000467   -0.000337    0.000060
    0.000457   -0.000385    0.000143
   -0.000305    0.000280   -0.000539
   -0.000047    0.000160    0.000196
   -0.000260    0.000152   -0.000525
    0.000385    0.000271    0.000092
    0.000025    0.000409   -0.000129
   -0.000177    0.000022   -0.000145
    0.000004    0.000370   -0.000514
   -0.000087    0.000547   -0.000077
   -0.002574   -0.000593    0.000332
    0.000245   -0.002446    0.003268
    0.004335    0.001730    0.002185
    0.001265    0.004087   -0.000135
   -0.000454   -0.000127   -0.000429
   -0.000182    0.000101   -0.000389
   -0.000485    0.000149   -0.000343
   -0.000320    0.000265   -0.000171
   -0.000546    0.000083   -0.000105
   -0.000307    0.000165   -0.000044
   -0.000200    0.000417    0.000054
   -0.000121    0.000373   -0.000320
   -0.000244    0.000414   -0.000014
   -0.000308    0.000360   -0.000336
   -0.000417    0.000172   -0.000023
   -0.000404    0.000389   -0.000122
   -0.000226    0.000215   -0.000099
   -0.000104    0.000502    0.000211
   -0.000526    0.000153   -0.000141
   -0.000387   -0.000044    0.000401
   -0.000428   -0.000046    0.000033
   -0.000384    0.000322    0.000087
   -0.000418    0.000099   -0.000336
   -0.000208    0.000071    0.000244
    0.000148   -0.000152    0.000082
    0.000153   -0.000224    0.000106
    0.000166   -0.000125   -0.000036
   -0.013336   -0.001346    0.008974
   -0.003026   -0.015251    0.015261
    0.003786   -0.002639    0.004287
   -0.111236    0.084987   -0.620263
    0.151383   -0.490587    0.155642
   -0.070699    0.430704    0.283077
    0.011915   -0.008013    0.006120
    0.010661    0.004903    0.002276
   -0.004750    0.008250    0.008494
   -0.004655    0.001388   -0.005019
   -0.000770   -0.001407    0.001854
   -0.001110   -0.001066    0.002400
    0.000362    0.000849    0.000261
   -0.000071   -0.000915   -0.000530
    0.000793   -0.000680    0.000135
   -0.000204    0.000000   -0.000005
    0.000208    0.000048    0.000078
    0.000325   -0.000125    0.000108
    0.000195   -0.000032    0.000130
    0.000214   -0.000012    0.000102
    0.000246   -0.000205    0.000121
    0.000253   -0.000202    0.000084
    0.000194   -0.000152    0.000157
    0.000233   -0.000135    0.000454
   -0.000024   -0.000243    0.000333
    0.000235   -0.000205    0.000230
    0.000264   -0.000306    0.000283
    0.000328   -0.000332    0.000195
    0.000328   -0.000259    0.000068
    0.000277   -0.000240    0.000124
    0.000362   -0.000350    0.000181
    0.000382   -0.000321    0.000098
    0.000431   -0.000390    0.000170
    0.000539   -0.000362    0.000060
    0.000464   -0.000303    0.000004
    0.000442   -0.000321    0.000054
    0.000643   -0.000434    0.000169
    0.000401   -0.000237    0.000059
    0.000328   -0.000504    0.000239
vibration 2
   -0.000158   -0.000477   -0.000682
   -0.002878   -0.002936   -0.003825
   -0.005200    0.001761    0.002313
    0.001348   -0.000633    0.000600
   -0.000229    0.000286   -0.001990
   -0.002761   -0.000763   -0.001345
   -0.002219   -0.005196   -0.004698
   -0.005010   -0.016536   -0.003779
   -0.016862    0.008493    0.002826
   -0.007884    0.004041    0.001699
   -0.008736    0.018246    0.003741
   -0.052449   -0.096544    0.017705
    0.108771    0.093682   -0.016779
    0.013615    0.013086   -0.002544
    0.000193   -0.000014   -0.000418
   -0.002852    0.001461    0.006282
    0.000539   -0.000963    0.000692
   -0.000118   -0.001337    0.001429
    0.000825   -0.001883    0.001632
    0.001380   -0.001496    0.001381
    0.001256   -0.001040    0.000889
    0.001078   -0.002062    0.001495
    0.001790   -0.001532    0.001520
    0.001793   -0.001250    0.001454
    0.002108   -0.001844    0.001511
    0.000519   -0.000249   -0.000299
    0.001175   -0.000128    0.000106
    0.001400    0.000359   -0.000057
    0.001060    0.000694   -0.000695
    0.000562    0.000348   -0.000851
    0.001500    0.000033    0.000221
    0.001228    0.001218   -0.000798
    0.001386    0.001095   -0.000302
   -0.001694   -0.000190   -0.002212
   -0.001213   -0.000036   -0.002564
   -0.001843   -0.000205   -0.003277
   -0.002914   -0.000770   -0.003343
   -0.002960   -0.000893   -0.003291
   -0.001827    0.000336   -0.003429
   -0.002208   -0.001651   -0.003111
   -0.002574   -0.000924   -0.002524
   -0.002330   -0.002270   -0.003268
   -0.002166   -0.000278   -0.001436
   -0.001957    0.000036   -0.000984
   -0.001615    0.001391   -0.001033
   -0.001917    0.001149   -0.000867
   -0.005755    0.000318    0.005337
   -0.002320    0.001222    0.003361
   -0.001844    0.000023    0.002901
   -0.001731    0.000100    0.002619
   -0.001712   -0.000413    0.002395
   -0.000705   -0.000138    0.001211
   -0.000808   -0.000667    0.000392
   -0.000282   -0.000688    0.000377
   -0.000148   -0.001003    0.000350
   -0.000062   -0.000283    0.000370
    0.000531   -0.000243    0.000283
    0.000122   -0.000023    0.000166
    0.000769   -0.000060    0.000057
    0.001187    0.000273   -0.000191
    0.000698    0.000531   -0.000053
    0.000161   -0.001486    0.000525
    0.000111   -0.001037    0.000444
   -0.000788   -0.000543    0.000418
   -0.001526   -0.001115    0.000539
   -0.000013   -0.000792    0.000501
   -0.007479    0.003654    0.003407
    0.001760   -0.000477    0.000875
    0.000231    0.000804   -0.002682
    0.024273   -0.022556   -0.023623
   -0.033740    0.008976    0.001106
   -0.012269    0.014480    0.005341
    0.002549    0.016465   -0.002005
   -0.009530    0.029595    0.006077
   -0.293687   -0.126164   -0.091266
   -0.008016   -0.318464    0.171053
    0.391174    0.100317    0.084732
    0.061775    0.350015   -0.163834
    0.001030   -0.002059    0.001768
    0.001499   -0.002374    0.001516
    0.000984   -0.001965    0.001140
    0.001810   -0.001858    0.001734
    0.002408   -0.002319    0.001518
    0.002369   -0.001504    0.001116
    0.001814    0.000659    0.000057
    0.000858    0.000690   -0.000854
    0.000944   -0.000377    0.000102
    0.001976   -0.000329    0.000758
    0.001785    0.000564    0.000092
    0.001316    0.001353   -0.000712
    0.001062    0.001354   -0.001037
    0.006449    0.004431    0.000838
   -0.002160    0.001236   -0.005116
   -0.000269   -0.003053    0.004550
   -0.001861    0.000249   -0.003515
   -0.001714    0.000685   -0.002999
   -0.002103    0.000538   -0.003776
   -0.004330   -0.002686   -0.006011
    0.001081   -0.000620   -0.002209
   -0.002299    0.004348    0.000124
   -0.005136   -0.001205   -0.001072
   -0.009011    0.001205    0.004485
   -0.005712   -0.002906    0.007442
   -0.002267    0.001287    0.001656
   -0.000615   -0.000885    0.008958
   -0.002997    0.005727    0.000036
   -0.001575   -0.004868   -0.001343
   -0.001783    0.000494    0.002957
   -0.002384   -0.001181    0.002313
   -0.000483    0.000396    0.001357
   -0.000376    0.000494    0.001223
   -0.001347   -0.000661    0.000570
   -0.000878   -0.000920   -0.000074
   -0.000265   -0.000786    0.000379
   -0.000822   -0.002620   -0.001712
    0.001521   -0.002127    0.002046
   -0.001033    0.001271    0.000534
   -0.000195    0.000073    0.000405
   -0.000129   -0.000336    0.000391
    0.001006    0.000092   -0.000017
    0.000846   -0.000731    0.000651
   -0.000174    0.000556   -0.000260
   -0.000471   -0.000398    0.000480
    0.000946   -0.000578    0.000120
    0.001023    0.000634   -0.000351
    0.001277    0.000259   -0.000192
    0.001538    0.000223   -0.000210
    0.002320    0.001288   -0.000714
   -0.000730    0.001902    0.000041
   -0.001540   -0.002028    0.001058
    0.001496   -0.002911    0.000504
    0.000846   -0.000682    0.000201
    0.000050   -0.001795    0.000587
   -0.001056    0.000260    0.000344
   -0.002082   -0.000985    0.000491
   -0.001353   -0.001701    0.000783
   -0.001611   -0.001063    0.000527
   -0.006521    0.000523   -0.000627
    0.002653   -0.007106    0.003176
    0.005256    0.004217   -0.001092
vibration 3
   -0.000013    0.000116    0.000361
   -0.000204    0.000027    0.000556
   -0.000101    0.000157    0.000158
    0.000476   -0.000311    0.000120
   -0.001133    0.000492    0.002357
   -0.000095   -0.000029    0.000132
    0.000019    0.000068    0.000134
    0.000060   -0.000077    0.000071
   -0.000093    0.000187    0.000093
   -0.000032    0.000192    0.000097
   -0.000020    0.000219    0.000004
   -0.000495   -0.000991    0.000257
    0.001260    0.001017   -0.000135
    0.000177    0.000068    0.000026
    0.000016   -0.000084    0.000065
   -0.000008   -0.000072    0.000124
   -0.000004    0.000390    0.000164
    0.000077    0.000371    0.000156
    0.000010    0.000243    0.000255
    0.000060    0.000245    0.000119
    0.000085    0.000344    0.000215
    0.000062    0.000268    0.000175
   -0.000044    0.000252    0.000122
   -0.000097    0.000317    0.000075
   -0.000028    0.000293    0.000030
   -0.000915    0.001788    0.003166
    0.000276   -0.000360    0.001429
    0.001302   -0.004205    0.002064
   -0.001649   -0.001800    0.007157
   -0.001279    0.001939    0.004682
    0.001005   -0.005864    0.002069
    0.001928   -0.001397    0.001262
   -0.000426    0.007285   -0.027179
   -0.000578    0.000084    0.000934
   -0.000894   -0.000061    0.001520
   -0.000698   -0.000337    0.001227
   -0.000474   -0.000138    0.000966
   -0.000423   -0.000049    0.000848
   -0.000424    0.000006    0.000551
   -0.000316   -0.000033    0.000891
   -0.000276   -0.000109    0.000791
   -0.000130    0.000087    0.000675
    0.000024   -0.000070    0.000301
    0.000033   -0.000067    0.000131
    0.000006   -0.000247    0.000274
    0.000051   -0.000264    0.000204
   -0.000085   -0.000131    0.000138
    0.000018   -0.000094    0.000089
    0.000059   -0.000213    0.000068
    0.000064   -0.000292    0.000046
    0.000081   -0.000236    0.000039
    0.000011   -0.000227    0.000061
   -0.000006   -0.000217    0.000066
    0.000033   -0.000231    0.000103
   -0.000013   -0.000203    0.000032
    0.000043   -0.000208    0.000119
    0.000062   -0.000225    0.000209
   -0.000016   -0.000291    0.000206
   -0.000008   -0.000301    0.000248
    0.000025   -0.000319    0.000179
   -0.000026   -0.000323    0.000245
   -0.000025   -0.000379    0.000225
    0.000003   -0.000387    0.000222
    0.000024   -0.000414    0.000205
    0.000017   -0.000417    0.000178
    0.000052   -0.000437    0.000209
   -0.000121    0.000134    0.000184
    0.001110   -0.001256   -0.000387
    0.001205   -0.000995    0.001142
    0.000352   -0.000137   -0.000135
   -0.000218    0.000151    0.000145
   -0.000126   -0.000017    0.000077
    0.000154    0.000222   -0.000249
   -0.000011    0.000483    0.000118
   -0.003107   -0.001306   -0.000879
    0.000002   -0.003403    0.001884
    0.004434    0.001062    0.000935
    0.000728    0.003880   -0.001747
    0.000010    0.000262    0.000199
    0.000160    0.000256    0.000194
    0.000069    0.000346    0.000134
   -0.000150    0.000509    0.000210
    0.000095    0.000066    0.000013
   -0.000062    0.000412   -0.000285
    0.005310   -0.004104   -0.002817
   -0.003682   -0.003587    0.008950
    0.001811   -0.005095    0.002695
    0.000364   -0.005367    0.000650
    0.000484   -0.007202    0.002370
    0.020080    0.015072    0.009781
   -0.002195    0.003272   -0.019794
   -0.462627   -0.290036   -0.122457
    0.325271   -0.004432    0.414211
    0.158573    0.374996   -0.471716
   -0.000780   -0.000238    0.000049
   -0.000094    0.000289    0.000641
   -0.000180    0.000348    0.000416
   -0.000056    0.000052    0.000855
   -0.000035   -0.000228    0.000249
    0.000080   -0.000383    0.000184
    0.000138   -0.000185    0.000168
   -0.000232   -0.000088    0.000135
   -0.000082   -0.000276    0.000224
    0.000029    0.000126    0.000083
   -0.000019   -0.000258   -0.000273
    0.000167   -0.000564    0.000154
    0.000061   -0.000064    0.000224
    0.000123   -0.000299    0.000022
    0.000115   -0.000170    0.000005
    0.000002   -0.000204    0.000075
   -0.000013   -0.000257    0.000029
   -0.000025   -0.000161    0.000075
   -0.000017   -0.000245    0.000024
    0.000053   -0.000270    0.000103
   -0.000317   -0.001098   -0.001357
    0.000899   -0.000872    0.001129
   -0.000664    0.001265    0.000157
    0.000020   -0.000238    0.000030
    0.000104   -0.000087    0.000099
    0.000114   -0.000171    0.000187
    0.000094   -0.000248    0.000294
   -0.000046   -0.000273    0.000129
   -0.000069   -0.000331    0.000226
    0.000010   -0.000303    0.000290
   -0.000062   -0.000534   -0.000071
    0.000336   -0.000175    0.000102
   -0.000163   -0.000310    0.000362
    0.000017   -0.000311    0.000253
   -0.000050   -0.000304    0.000234
   -0.000067   -0.000385    0.000217
   -0.000010   -0.000402    0.000219
   -0.000019   -0.000401    0.000230
    0.000005   -0.000352    0.000212
    0.000017   -0.000396    0.000215
    0.000005   -0.000427    0.000164
    0.000020   -0.000429    0.000180
    0.000016   -0.000397    0.000169
   -0.000212   -0.000376    0.000166
    0.000157   -0.000688    0.000319
    0.000264   -0.000238    0.000120
vibration 4
    0.000032    0.000057    0.000009
    0.000670   -0.000353    0.000111
   -0.000071    0.000524   -0.000069
   -0.000665    0.000389   -0.000222
    0.000335   -0.000508    0.000344
    0.000191    0.000053    0.000047
    0.000433   -0.000031    0.000086
    0.000464    0.000160    0.000040
    0.000431    0.000174   -0.000072
    0.000155    0.000262   -0.000057
    0.000609    0.000356   -0.000222
    0.000953    0.000957   -0.000157
   -0.001009   -0.001414    0.000263
    0.000049   -0.000520    0.000125
    0.000068   -0.000484    0.000137
    0.000338   -0.000256   -0.000020
   -0.000349    0.000417   -0.000104
   -0.000387    0.000698   -0.000113
   -0.000663    0.000970   -0.000206
   -0.000708    0.000832   -0.000349
   -0.000562    0.000572   -0.000189
   -0.000735    0.001245   -0.000234
   -0.001043    0.001070   -0.000475
   -0.000984    0.000965   -0.000488
   -0.001381    0.001464   -0.000498
   -0.000141   -0.000069    0.000034
   -0.000376    0.000102   -0.000129
   -0.000448   -0.000063   -0.000111
   -0.000161   -0.000330    0.000110
    0.000030   -0.000277    0.000143
   -0.000383    0.000294   -0.000166
   -0.000285   -0.000678    0.000216
   -0.000473   -0.000830    0.000243
    0.000401   -0.000380    0.000158
    0.000545   -0.000534    0.000248
    0.000779   -0.000673    0.000401
    0.000891   -0.000706    0.000257
    0.000665   -0.000458    0.000221
    0.001080   -0.001116    0.000505
    0.001100   -0.000805    0.000281
    0.001360   -0.001040    0.000354
    0.000966   -0.000627    0.000212
    0.001246   -0.000499    0.000159
    0.001314   -0.000331    0.000057
    0.001349   -0.000704    0.000239
    0.001530   -0.000602    0.000223
    0.000188   -0.000318    0.000021
    0.000420   -0.000100   -0.000022
    0.000601   -0.000200    0.000066
    0.000632   -0.000560    0.000223
    0.000833    0.000046   -0.000019
    0.000767    0.000118   -0.000054
    0.000256    0.000573   -0.000296
   -0.000426    0.000618   -0.000392
    0.000030    0.000498    0.000592
   -0.000301    0.000505   -0.001038
   -0.001513    0.000343    0.000198
   -0.000977   -0.000721    0.000572
   -0.001612   -0.000918    0.002179
   -0.001172   -0.000366    0.002099
   -0.001295   -0.004176    0.003177
    0.002553    0.007877   -0.001358
    0.008943    0.002537   -0.000356
   -0.020317    0.015182   -0.002858
   -0.047094   -0.006249   -0.011332
    0.042895   -0.009980    0.006810
   -0.000092    0.000690   -0.000063
   -0.000992    0.000554   -0.000287
    0.000439   -0.000766    0.000462
    0.000350    0.000293    0.000282
    0.000434    0.000166   -0.000035
    0.000644    0.000322   -0.000212
    0.000815    0.000314   -0.000293
    0.000542    0.000598   -0.000281
    0.003787    0.001335    0.001255
    0.000455    0.003579   -0.002043
   -0.004355   -0.001525   -0.001010
   -0.000459   -0.004446    0.002060
   -0.001058    0.001257   -0.000215
   -0.000665    0.001149   -0.000185
   -0.000646    0.001471   -0.000357
   -0.001285    0.001734   -0.000419
   -0.001454    0.001654   -0.000506
   -0.001733    0.001296   -0.000553
   -0.000738   -0.000207   -0.000091
    0.000033   -0.000253    0.000134
   -0.000185    0.000365   -0.000318
   -0.000563    0.000445   -0.000007
   -0.000367    0.000405   -0.000202
   -0.000456   -0.000688    0.000171
   -0.000070   -0.000808    0.000336
   -0.000559   -0.000846    0.000264
   -0.000437   -0.000988    0.000197
   -0.000576   -0.000751    0.000292
    0.001154   -0.001083    0.000534
    0.000907   -0.001486    0.000192