[Molden Format]

[FREQ]
 15.464467
 19.631194
 23.979460
 26.438159
 28.172797
 45.098914
 46.231656
 48.448353
 54.006488
 61.998727
 67.386273
 74.912917
 76.117216
 81.200522
 93.608188
 95.466484
 106.427789
 110.378085
 118.493430
 124.276536
 131.569605
 141.478465
 143.761701
 151.060710
 157.446811
 164.703484
 169.941736
 180.289667
 195.031372
 195.978505
 198.734771
 201.996971
 206.241249
 213.004825
 215.373064
 219.335121
 227.831816
 232.057766
 240.127687
 244.960351
 249.852750
 262.084905
 265.543301
 273.322118
 276.006311
 290.553755
 305.434953
 318.714147
 328.348281
 332.627042
 348.131787
 355.556863
 366.199775
 369.514363
 389.352899
 417.017927
 428.865126
 432.296956
 458.790105
 461.090404
 471.556995
 484.468597
 542.804107
 549.615762
 562.743180
 578.746979
 596.253697
 600.578851
 609.265689
 621.259209
 623.162717
 624.227166
 630.805004
 635.787133
 659.517294
 661.145705
 670.674752
 680.981090
 700.956229
 715.801442
 727.409421
 736.609027
 745.516680
 753.205160
 764.446592
 781.303122
 792.202514
 797.637417
 798.473519
 807.289788
 820.145861
 856.702268
 868.139322
 894.744522
 909.733450
 912.843144
 915.834719
 930.070062
 942.426053
 950.062590
 959.130867
 964.125039
 970.226761
 980.720038
 983.876803
 1009.476008
 1012.439298
 1027.773427
 1032.165105
 1033.979551
 1040.172913
 1041.382691
 1051.165171
 1054.703411
 1063.715974
 1067.045327
 1071.898948
 1085.539523
 1088.655196
 1093.636191
 1098.627201
 1105.869798
 1117.508757
 1129.576623
 1134.276789
 1140.687639
 1146.110282
 1156.048680
 1160.356822
 1166.792831
 1183.431627
 1185.698076
 1194.195285
 1196.465985
 1201.965848
 1207.095676
 1220.518895
 1232.426838
 1234.732622
 1248.953737
 1257.640670
 1261.300582
 1267.962777
 1274.586186
 1280.276094
 1285.570124
 1311.102636
 1314.324306
 1321.453263
 1323.725675
 1333.758109
 1336.145388
 1339.373989
 1344.171376
 1355.867797
 1361.725032
 1379.571670
 1383.781300
 1384.157630
 1385.022927
 1396.457620
 1396.769974
 1399.545870
 1409.031337
 1436.799244
 1441.955004
 1444.027475
 1450.398533
 1450.984960
 1452.908056
 1454.896820
 1456.012369
 1463.724560
 1464.130386
 1464.590757
 1465.988404
 1473.360924
 1473.409129
 1474.717969
 1475.391401
 1478.022164
 1478.798648
 1479.198830
 1479.545163
 1482.840509
 1488.818113
 1509.373620
 1524.030747
 1538.307155
 1563.411697
 1576.304196
 1605.400586
 1724.408186
 1774.418953
 1797.554929
 2993.399440
 2996.746233
 3000.948643
 3005.722678
 3007.475443
 3012.221932
 3013.332095
 3018.448185
 3019.855493
 3022.022899
 3022.545560
 3029.350178
 3030.743396
 3031.506278
 3032.480628
 3038.845218
 3047.459404
 3050.439663
 3062.607215
 3066.513487
 3070.376537
 3074.707519
 3076.831041
 3079.277542
 3080.454208
 3080.789899
 3082.511696
 3082.768461
 3085.327593
 3085.669371
 3087.897352
 3097.074183
 3097.587990
 3098.598870
 3103.447928
 3129.661874

[FR-COORD]
Mg     0.085172    0.060930    0.618022
C     -4.192588   -4.814572    1.002683
C     -4.826330    4.164728    0.269611
C      4.343830    4.780609    0.257875
C      4.998245   -4.309110    0.442017
N     -3.954085   -0.326164    0.728441
C     -5.325045   -2.478745    1.026439
C     -8.104583   -1.890643    1.333983
C     -8.251038    0.807693    0.271579
C     -5.522828    1.669245    0.455978
C     -9.118595    0.853705   -2.493781
C     -8.849038   -1.953274    4.150650
C    -11.709512   -1.823332    4.506238
N     -0.187639    3.820706    0.373806
C     -2.377051    5.192444    0.301875
C     -1.783884    7.827907    0.193174
C      0.828074    8.027010    0.194933
C      1.790143    5.470274    0.319831
C     -3.709914    9.896638    0.198742
C      2.450414   10.271949    0.075689
O      4.641148   10.258888    0.754051
C      1.321917   12.679548   -0.995614
N      4.065292    0.197225    0.403880
C      5.363450    2.386280    0.295668
C      8.183752    1.920334    0.097199
C      8.392560   -0.920514    0.653678
C      5.672425   -1.796944    0.460336
C      9.131977    2.590820   -2.558398
C      9.468397   -1.498510    3.298054
C      7.802987   -0.507324    5.439866
N      0.443162   -3.680830    0.628248
C      2.517853   -5.248295    0.481160
C      1.729286   -7.844093    0.466621
C     -0.882202   -7.788814    0.651511
C     -1.582542   -5.193836    0.771053
C      3.402066  -10.104279    0.306059
C     -3.138988   -9.328152    0.712674
O     -3.420976  -11.568493    0.468419
C     -5.390219   -7.421177    1.139968
C     -6.473557   -8.040761    3.721619
O     -5.678020   -7.227266    5.691566
O     -8.403749   -9.643866    3.542957
C     -9.447151  -10.493372    5.882107
H     -6.366918    5.506276    0.079583
H      5.690230    6.321984    0.172922
H      6.516323   -5.688893    0.429494
H     -9.282652   -3.227549    0.278704
H     -9.501861    2.023521    1.385747
H     -9.052339    2.779553   -3.222945
H    -11.050056    0.154328   -2.644789
H     -7.888034   -0.331362   -3.648272
H     -7.940763   -0.366251    5.120271
H     -8.139936   -3.688599    5.009408
H    -12.621042   -3.430639    3.591653
H    -12.481512   -0.089622    3.701626
H     -3.111886   11.453212    1.408354
H     -5.525506    9.217226    0.894037
H     -3.993774   10.634409   -1.708546
H      0.079801   12.296595   -2.587486
H      2.856182   13.916368   -1.586853
H      0.251100   13.637938    0.479137
H      9.223264    3.062275    1.476800
H      9.579710   -1.882012   -0.745642
H      8.838678    4.595781   -2.927523
H      8.110193    1.502490   -3.980286
H     11.143281    2.177076   -2.719918
H     11.356369   -0.666599    3.444444
H      9.666849   -3.549117    3.489085
H      5.921361   -1.353177    5.346268
H      7.604022    1.541446    5.335865
H      8.644215   -0.987169    7.257378
H      4.559052  -10.032635   -1.401136
H      2.267688  -11.822369    0.270393
H      4.674354  -10.181567    1.929539
H     -6.840209   -7.751282   -0.295148
H    -10.934855  -11.838388    5.418626
H    -10.229187   -8.895034    6.933867
H     -7.982799  -11.404772    7.019070
H    -12.165608   -1.867906    6.514639

[FR-NORM-COORD]
vibration 1
   -0.003215   -0.003132   -0.012595
   -0.003230   -0.001441   -0.005670
   -0.002340   -0.002346   -0.019711
   -0.002663   -0.002745    0.006654
   -0.003338   -0.003611   -0.014777
   -0.004227   -0.002754   -0.022255
   -0.004880   -0.002072   -0.023144
   -0.008389   -0.004714   -0.047128
   -0.001905   -0.002636   -0.043305
   -0.002949   -0.002824   -0.029617
    0.010471    0.002552   -0.047124
   -0.039462   -0.014916   -0.055943
   -0.043281   -0.011628   -0.087076
   -0.002829   -0.002720   -0.004457
   -0.002539   -0.002192   -0.003508
   -0.002137   -0.001573    0.015682
   -0.002039   -0.001631    0.025792
   -0.002583   -0.002568    0.010584
   -0.002091   -0.001560    0.023579
   -0.001279   -0.000911    0.051071
   -0.002720   -0.008472    0.055757
    0.001788    0.010556    0.073688
   -0.002879   -0.003396   -0.011036
   -0.002938   -0.003038   -0.006091
   -0.003364   -0.002477   -0.012962
   -0.002103   -0.004416   -0.023152
   -0.002931   -0.003535   -0.017261
   -0.008620    0.006943   -0.012492
    0.007247   -0.013544   -0.028967
    0.014463   -0.021199   -0.019796
   -0.003125   -0.002793   -0.009288
   -0.003338   -0.003344   -0.007325
   -0.003470   -0.003549    0.002551
   -0.003123   -0.002920    0.007618
   -0.002905   -0.002306   -0.000662
   -0.003665   -0.004114    0.007025
   -0.003513   -0.002356    0.015261
   -0.004932   -0.002781    0.020564
   -0.001487   -0.000831    0.017738
    0.027020    0.019601    0.035258
    0.055135    0.029551    0.019789
    0.018350    0.026022    0.070085
    0.043848    0.047163    0.089241
   -0.001539   -0.001912   -0.023010
   -0.002407   -0.002549    0.013792
   -0.003500   -0.003874   -0.017083
    0.004302   -0.003429   -0.063213
   -0.006627   -0.004106   -0.046942
    0.014001    0.003917   -0.043235
    0.011044    0.003090   -0.057128
    0.015533    0.004579   -0.043824
   -0.047356   -0.021031   -0.038651
   -0.052517   -0.020272   -0.055945
   -0.035931   -0.005515   -0.105177
   -0.031261   -0.006302   -0.087080
   -0.010180   -0.013978    0.043635
   -0.006912   -0.008388    0.004246
    0.011064    0.018097    0.029239
    0.008939    0.027674    0.063964
    0.003519    0.018214    0.094164
   -0.005319   -0.006846    0.079832
   -0.000669   -0.007230   -0.011022
   -0.007167    0.000126   -0.030667
   -0.009414    0.008277   -0.004786
   -0.011452    0.011965   -0.014350
   -0.008910    0.007540   -0.017974
    0.007670   -0.013773   -0.032687
    0.008292   -0.014201   -0.036734
    0.014195   -0.020935   -0.016490
    0.014017   -0.020824   -0.011871
    0.020633   -0.027616   -0.024314
   -0.005043   -0.008665    0.005840
   -0.003820   -0.004193    0.012572
   -0.002309    0.000129    0.006251
   -0.015798   -0.011718    0.034955
    0.033261    0.049058    0.117466
    0.062475    0.057892    0.086888
    0.054509    0.050367    0.078184
   -0.065744   -0.020690   -0.092346
vibration 2
    0.005033   -0.001068    0.004310
    0.007833   -0.004332    0.014515
    0.001647   -0.005333    0.001528
    0.000515    0.001567   -0.018597
    0.008132    0.002423    0.012487
    0.005417   -0.004589    0.004596
    0.006027   -0.004979    0.004012
    0.004854   -0.005563   -0.005942
    0.006745   -0.010780   -0.018918
    0.004279   -0.006353   -0.004309
    0.027311   -0.025051   -0.025658
   -0.001181    0.010542   -0.007018
   -0.002456    0.003305   -0.014814
    0.001840   -0.001326    0.001075
    0.000642   -0.002613    0.009637
   -0.001818   -0.001627    0.021279
   -0.001651    0.000516    0.016363
    0.000488    0.000435    0.000890
   -0.003956   -0.003539    0.036570
   -0.003174    0.002243    0.028620
    0.000573   -0.003789    0.016815
   -0.009620    0.012877    0.059284
    0.004280    0.001276   -0.007737
    0.001758    0.001992   -0.026882
   -0.000143    0.002828   -0.054469
    0.007641    0.006164   -0.040618
    0.006367    0.003016   -0.009825
   -0.031404   -0.012180   -0.069533
    0.035138    0.022075   -0.048484
    0.057840    0.035871   -0.037301
    0.007798   -0.001156    0.022512
    0.009308    0.000396    0.028941
    0.012043   -0.000450    0.041607
    0.011890   -0.002262    0.038027
    0.008939   -0.002568    0.025555
    0.014321    0.000525    0.053530
    0.013583   -0.004723    0.036001
    0.018679   -0.006867    0.049841
    0.007733   -0.004944    0.006073
   -0.035628   -0.002596   -0.012029
   -0.065817   -0.006716    0.001775
   -0.039046    0.005064   -0.045319
   -0.082646    0.008242   -0.063685
    0.000597   -0.006902   -0.001531
   -0.000669    0.002149   -0.028723
    0.009148    0.003655    0.012166
    0.007754   -0.011492   -0.001507
   -0.003522   -0.007994   -0.033572
    0.029589   -0.028268   -0.033995
    0.029642   -0.029072   -0.036946
    0.038052   -0.028332   -0.010905
   -0.008992    0.020478   -0.015941
    0.002944    0.019195    0.006888
    0.005314   -0.006785   -0.004845
   -0.006560   -0.005452   -0.029820
   -0.008061   -0.014540    0.052930
   -0.004825   -0.011937    0.026171
   -0.000412    0.014650    0.043043
   -0.011490    0.029109    0.056753
   -0.012997    0.022773    0.071087
   -0.009232   -0.006625    0.072276
    0.014851    0.011679   -0.073151
   -0.005698   -0.000658   -0.047241
   -0.037437   -0.014556   -0.077880
   -0.047183   -0.021405   -0.051190
   -0.032952   -0.011541   -0.090571
    0.036903    0.022422   -0.073451
    0.036606    0.023226   -0.037928
    0.056085    0.037333   -0.013636
    0.058889    0.035448   -0.046844
    0.075696    0.045290   -0.043090
    0.014069   -0.007571    0.053080
    0.016127   -0.000803    0.062919
    0.014529    0.010659    0.053771
    0.030140   -0.006786   -0.016447
   -0.079571    0.013889   -0.089825
   -0.095009    0.010807   -0.076823
   -0.105762    0.002540   -0.038548
   -0.007130    0.016883   -0.015569
vibration 3
    0.004709   -0.000494    0.017971
    0.003234   -0.000720   -0.000687
    0.004410    0.002929    0.041754
    0.004824   -0.001845   -0.014899
    0.005065   -0.000952    0.021016
    0.001233    0.000358    0.018569
    0.001446   -0.001542    0.002164
   -0.002372   -0.009612   -0.014090
    0.000742    0.008321    0.030343
    0.002410    0.002585    0.031794
   -0.014119    0.057072    0.035865
   -0.038261   -0.065498   -0.025278
   -0.043510   -0.079919   -0.061110
    0.005087   -0.000281    0.017100
    0.005229    0.000612    0.029709
    0.005773    0.000044    0.019156
    0.005627   -0.001358   -0.003904
    0.005389   -0.001281   -0.002276
    0.006582    0.000697    0.031229
    0.005522   -0.002763   -0.032284
    0.010651    0.001900   -0.049041
   -0.001972   -0.011238   -0.043564
    0.004213   -0.001020    0.008085
    0.004360   -0.001821   -0.007867
    0.003207   -0.004230   -0.017953
    0.004354    0.001305    0.009365
    0.004666   -0.000834    0.014586
   -0.012682   -0.032729   -0.030937
   -0.000191    0.028051    0.017205
   -0.001513    0.053328    0.004553
    0.004753   -0.000503    0.019212
    0.004663   -0.000716    0.018143
    0.003853   -0.000604    0.006564
    0.003283   -0.000511   -0.000413
    0.003975   -0.000593    0.008521
    0.003787   -0.000461    0.001368
    0.001442    0.000856   -0.019113
   -0.000316    0.003258   -0.039848
    0.002502   -0.000866   -0.009224
    0.014009   -0.004959   -0.004694
    0.060588   -0.053827   -0.003553
   -0.036155    0.054476   -0.003292
   -0.036902    0.059289   -0.001739
    0.005065    0.005295    0.053252
    0.004674   -0.002551   -0.029609
    0.005215   -0.001003    0.023732
    0.012933    0.006655   -0.052291
    0.008805   -0.007430    0.056852
   -0.014985    0.069386    0.068314
   -0.016160    0.062988    0.034517
   -0.022515    0.074840    0.008751
   -0.055083   -0.082532    0.018140
   -0.045944   -0.080682   -0.049756
   -0.026827   -0.064678   -0.104585
   -0.036939   -0.066404   -0.038224
    0.025983    0.011234    0.007902
    0.017563    0.006943    0.066140
   -0.023656   -0.016263    0.029147
   -0.020808   -0.024263   -0.025697
   -0.006242   -0.019928   -0.072842
    0.016809    0.005339   -0.040667
    0.011851    0.009574   -0.035961
    0.007101   -0.012010    0.020849
   -0.015322   -0.036717   -0.050690
   -0.021185   -0.048267   -0.013011
   -0.013576   -0.034219   -0.038659
    0.000853    0.026935    0.010901
   -0.003513    0.029700    0.039185
   -0.002793    0.055153    0.011194
    0.001757    0.052563   -0.017378
   -0.004516    0.071260    0.010732
    0.010607    0.007999    0.006234
    0.003257    0.000059   -0.011961
   -0.002634   -0.009273    0.006109
   -0.004027    0.005919   -0.004047
   -0.087079    0.114553   -0.001248
    0.028543    0.071970    0.027709
   -0.053744   -0.003704   -0.030486
   -0.070715   -0.119882   -0.068132
vibration 4
    0.001204   -0.005564   -0.020300
    0.010495   -0.010203   -0.014752
   -0.006427   -0.012244   -0.016252
   -0.006709    0.001378    0.009455
    0.007542    0.001484   -0.019624
    0.003203   -0.010048   -0.017001
    0.008022   -0.011703   -0.008007
    0.010321   -0.013791    0.014733
   -0.001189   -0.018893    0.003591
   -0.001837   -0.012955   -0.011367
   -0.013039   -0.033976    0.007095
    0.041888    0.000476    0.023653
    0.045804   -0.003805    0.056031
   -0.005818   -0.005582   -0.012788
   -0.007713   -0.008683   -0.016479
   -0.011322   -0.007712   -0.010698
   -0.011519   -0.003785    0.000032
   -0.008101   -0.002533   -0.001599
   -0.014132   -0.010267   -0.015550
   -0.014809   -0.000701    0.014222
   -0.018001    0.000932    0.024548
   -0.013965    0.000891    0.016990
    0.000831    0.000336   -0.009325
   -0.002584    0.003128    0.007104
   -0.000357    0.009510    0.023891
    0.001355    0.005698    0.004148
    0.003410    0.002713   -0.010573
    0.019967    0.032611    0.037135
   -0.005776   -0.012314    0.003070
   -0.016231   -0.034865    0.005342
    0.007104   -0.005256   -0.029607
    0.009257   -0.002694   -0.023912
    0.012823   -0.004130   -0.013883
    0.012874   -0.007417   -0.012112
    0.009751   -0.007844   -0.022531
    0.016575   -0.001972   -0.003996
    0.014361   -0.009892    0.004172
    0.016864   -0.011882    0.019290
    0.012515   -0.010693   -0.004209
    0.004904    0.011768   -0.001914
    0.044347   -0.026323   -0.002292
   -0.058471    0.086998    0.000798
   -0.085775    0.126047    0.002909
   -0.008827   -0.014754   -0.014413
   -0.008891    0.003917    0.021857
    0.009904    0.004192   -0.017839
    0.000340   -0.020042    0.034043
    0.000840   -0.016832    0.003573
   -0.020082   -0.037340   -0.002402
   -0.012221   -0.038717    0.018661
   -0.015484   -0.037017    0.007628
    0.049636    0.007981    0.004226
    0.055617    0.006937    0.025566
    0.038885   -0.011350    0.076218
    0.032712   -0.010359    0.054516
   -0.024251   -0.014163   -0.005485
   -0.018054   -0.015035   -0.030544
   -0.002115   -0.003248   -0.014601
   -0.004586    0.004102    0.008918
   -0.013333    0.006142    0.029696
   -0.023881   -0.006654    0.014653
   -0.013500    0.000652    0.041141
    0.006919    0.017627    0.000721
    0.020024    0.035125    0.051065
    0.033284    0.042723    0.019928
    0.021876    0.037042    0.050160
   -0.008922   -0.007622    0.016226
    0.000044   -0.013154   -0.012672
   -0.012889   -0.040729   -0.007393
   -0.023073   -0.034779    0.020636
   -0.020531   -0.046057    0.004322
    0.014874   -0.008494   -0.005364
    0.019627   -0.004127    0.005722
    0.018166    0.008481   -0.004813
    0.014077   -0.015761   -0.004765
   -0.146561    0.192356    0.005653
   -0.011466    0.157495    0.010332
   -0.120877    0.059136   -0.005575
    0.069194    0.007232    0.061581
vibration 5
    0.000923   -0.005453   -0.021437
    0.000092   -0.003803   -0.018602
    0.003466   -0.001950   -0.006151
    0.003056   -0.007507   -0.027827
    0.000610   -0.007513    0.007674
    0.003049   -0.003690   -0.018579
    0.002337   -0.002692   -0.013477
    0.005269    0.001822    0.004391
    0.002488   -0.001486   -0.003363
    0.003247   -0.002136   -0.010728
   -0.001836   -0.010297   -0.002183
    0.030173    0.015141    0.011510
    0.033915    0.024700    0.037799
    0.003188   -0.004195   -0.019140
    0.003860   -0.002495   -0.006044
    0.004916   -0.002140    0.009924
    0.005321   -0.003492    0.004831
    0.003890   -0.005095   -0.015888
    0.006146   -0.001068    0.029839
    0.006694   -0.003489    0.026792
    0.010922   -0.015815    0.013447
    0.002904    0.014754    0.071910
   -0.001400   -0.007563   -0.017930
    0.000083   -0.008460   -0.025469
   -0.001073   -0.014098   -0.026324
   -0.005167   -0.002292    0.032649
   -0.001247   -0.007199    0.004288
   -0.017242   -0.075689   -0.047889
   -0.058436    0.055873    0.067571
   -0.096154    0.110844    0.013035
    0.000316   -0.006456   -0.020018
    0.000307   -0.007544   -0.007419
   -0.000429   -0.007389   -0.004213
   -0.001087   -0.006080   -0.013504
   -0.000416   -0.005449   -0.021592
   -0.000359   -0.008307    0.009202
   -0.001762   -0.004954   -0.010112
   -0.003265   -0.005201   -0.006308
   -0.000445   -0.003146   -0.009988
    0.009222    0.003135   -0.004408
    0.015746    0.009874   -0.009715
    0.010737    0.000078    0.007752
    0.021415    0.005368    0.014486
    0.003140   -0.001272    0.001125
    0.004960   -0.009481   -0.032756
    0.001440   -0.006745    0.025384
   -0.005858   -0.000107    0.019397
    0.004410    0.001944   -0.004981
   -0.002379   -0.012636   -0.008495
   -0.002283   -0.010300    0.003069
   -0.003899   -0.014442   -0.000197
    0.043663    0.016663   -0.003427
    0.033314    0.016691    0.012139
    0.020656    0.023881    0.052397
    0.031173    0.023938    0.038706
   -0.000330   -0.020435    0.058161
    0.001136   -0.010252    0.007621
    0.018944    0.029298    0.039718
    0.002810    0.042052    0.065362
    0.000938    0.027554    0.093523
    0.002001   -0.013730    0.089747
    0.008659    0.014587   -0.057752
    0.023682   -0.029830    0.076458
   -0.021124   -0.084398   -0.092470
   -0.025635   -0.109546   -0.016036
   -0.018016   -0.078379   -0.050840
   -0.058712    0.053543    0.084919
   -0.068813    0.059579    0.118673
   -0.096749    0.113150   -0.001247
   -0.089074    0.108904   -0.039101
   -0.130896    0.151774    0.039974
    0.006791   -0.013433    0.013822
   -0.000629   -0.008153    0.009381
   -0.007126   -0.004007    0.014742
   -0.005172   -0.006565   -0.004380
    0.021511    0.001796    0.024420
    0.023319    0.007319    0.012993
    0.027403    0.010851    0.011224
    0.052799    0.033471    0.042307
vibration 6
   -0.003806   -0.003105    0.014921
   -0.002552   -0.000687   -0.010245
   -0.006008   -0.001264   -0.007003
   -0.004633   -0.000471    0.026816
   -0.000795    0.000089    0.010146
   -0.004431   -0.000287   -0.005856
   -0.003329   -0.001537   -0.007778
   -0.002409   -0.000961   -0.001748
   -0.004453   -0.004969   -0.011462
   -0.005725   -0.001750   -0.007714
    0.003091   -0.017363   -0.014099
    0.013302    0.011089    0.002833
    0.016418    0.027669    0.021412
   -0.006686   -0.005286    0.018133
   -0.005481   -0.004070    0.002756
   -0.002618   -0.004191   -0.000307
   -0.004326   -0.007445    0.020425
   -0.005709   -0.006033    0.030920
    0.002283    0.000447   -0.020482
    0.001183   -0.010299    0.029287
   -0.033951    0.010301    0.140602
    0.050024   -0.052173   -0.115898
   -0.002195    0.000073    0.020086
   -0.002779    0.000021    0.013193
   -0.005782   -0.001357   -0.021519
   -0.000242    0.001967   -0.007537
   -0.001172    0.000029    0.009763
   -0.049690   -0.021477   -0.042682
    0.014167    0.018485   -0.009918
    0.033882    0.045223   -0.007039
   -0.001383   -0.000933    0.005201
   -0.000932   -0.000666    0.007713
   -0.001330   -0.000348   -0.000664
   -0.002134   -0.000608   -0.008306
   -0.001952   -0.000870   -0.004653
   -0.001154   -0.000326   -0.000415
   -0.003057    0.000165   -0.018151
   -0.004420    0.001574   -0.029712
   -0.002425   -0.000612   -0.011571
    0.006970    0.002066   -0.006923
    0.018028    0.001322   -0.011034
    0.001083    0.008057    0.003029
    0.008236    0.015305    0.008920
   -0.003806    0.000517   -0.012945
   -0.008413    0.003427    0.027946
   -0.000541    0.000326    0.006314
   -0.007849   -0.004745    0.009350
   -0.008922   -0.002439   -0.019351
    0.002794   -0.020271   -0.021855
    0.004364   -0.020401   -0.016638
    0.007790   -0.020673   -0.005730
    0.028169    0.008904   -0.007346
    0.009488    0.009348    0.002883
    0.001201    0.031612    0.029609
    0.020629    0.030990    0.024519
    0.040169    0.044166   -0.095950
    0.020922    0.028182    0.056215
   -0.050198   -0.070541   -0.040423
    0.060757   -0.118698   -0.108159
    0.074768   -0.105401   -0.163006
    0.049127    0.042392   -0.177629
    0.016834    0.007794   -0.046382
   -0.006595   -0.004903   -0.008196
   -0.056410   -0.024270   -0.053025
   -0.073699   -0.032561   -0.017087
   -0.052359   -0.022565   -0.073543
    0.019497    0.009978   -0.029621
    0.004810    0.018983    0.005620
    0.027056    0.058519    0.009419
    0.048403    0.045950   -0.019476
    0.040932    0.051192   -0.008684
    0.008720    0.006155    0.006525
   -0.001540    0.000174   -0.013803
   -0.010531   -0.007402    0.006649
   -0.007459    0.000457   -0.006588
   -0.002706    0.024464    0.017349
    0.023986    0.020602    0.012623
    0.008635    0.006457    0.001368
    0.029694    0.032844    0.024563
vibration 7
   -0.003285    0.002531    0.001647
   -0.005799    0.004415   -0.000734
   -0.001855    0.001166   -0.040972
   -0.001675   -0.002723   -0.002903
   -0.003243   -0.001273    0.037184
   -0.005359    0.003584   -0.011740
   -0.004918    0.005043   -0.002269
   -0.003545    0.004291    0.008590
   -0.010020    0.011405    0.026730
   -0.004540    0.003978   -0.011817
   -0.064434    0.034610    0.044566
    0.005814   -0.019485    0.010527
    0.007070   -0.024798    0.021796
   -0.002641    0.001391   -0.026212
   -0.001824    0.001991   -0.051460
    0.000383    0.001140   -0.061365
    0.001297    0.000690   -0.027268
   -0.001442    0.000083   -0.014561
    0.003713    0.004265   -0.111812
    0.004933    0.000621    0.024187
    0.001778   -0.018436    0.035296
    0.015822    0.030335    0.080422
   -0.001738   -0.002038    0.019850
   -0.002277   -0.002665    0.004697
   -0.003117   -0.003256   -0.004910
    0.000408   -0.002379   -0.001495
   -0.001807   -0.001677    0.024323
   -0.014498   -0.007419   -0.010030
    0.032094   -0.000256   -0.014428
    0.063572    0.010868    0.004554
   -0.003404    0.001955    0.024571
   -0.003802    0.000770    0.034220
   -0.005601    0.001353    0.025167
   -0.006522    0.002904    0.006876
   -0.005300    0.003176    0.009237
   -0.006090    0.000394    0.036355
   -0.009128    0.005747   -0.020552
   -0.012479    0.009404   -0.049298
   -0.007418    0.004849   -0.008664
    0.008121   -0.010663   -0.005711
    0.029344   -0.034106   -0.004739
   -0.002104    0.001528   -0.005228
    0.015782   -0.018967   -0.004699
   -0.002731   -0.000697   -0.046227
   -0.000068   -0.004533   -0.006276
   -0.004370   -0.002316    0.040446
   -0.006116    0.011080    0.002769
    0.015224    0.008559    0.058559
   -0.071666    0.039463    0.056888
   -0.070299    0.043632    0.078513
   -0.092679    0.038080    0.011175
    0.008117   -0.027317    0.021051
    0.010034   -0.026389   -0.006891
    0.005182   -0.017845    0.011608
    0.003103   -0.018696    0.038916
   -0.060041   -0.030305   -0.035122
   -0.037852   -0.007914   -0.233467
    0.113879    0.058058   -0.107124
    0.065185    0.076120    0.030786
    0.022547    0.063389    0.167237
   -0.035530   -0.031118    0.082775
    0.002378   -0.000610   -0.011384
   -0.016047   -0.004796   -0.013882
   -0.014969   -0.007842   -0.011583
   -0.021451   -0.008764   -0.003930
   -0.015533   -0.008794   -0.018414
    0.037037   -0.007017   -0.040956
    0.027120   -0.000454   -0.012391
    0.057113    0.023357    0.025890
    0.075834    0.012022    0.006762
    0.081322    0.005568   -0.005159
    0.018563    0.008002    0.053579
   -0.007510    0.001978    0.011323
   -0.029710   -0.009662    0.054294
   -0.014230    0.011993   -0.003086
   -0.014377    0.015007   -0.006179
    0.059139   -0.022898    0.033332
    0.015803   -0.064099   -0.041010
    0.014245   -0.041907    0.022978
vibration 8
   -0.009394   -0.004357    0.011379
   -0.010536   -0.004785   -0.037091
   -0.009488   -0.001240    0.016078
   -0.009685   -0.005261    0.001336
   -0.006088   -0.004851    0.047632
   -0.008184   -0.004232   -0.018299
   -0.009479   -0.004973   -0.029992
   -0.006690   -0.000306   -0.014737
   -0.005918   -0.005667   -0.026838
   -0.008437   -0.002712   -0.008237
    0.021149   -0.022115   -0.035760
    0.027630    0.020807   -0.004963
    0.035402    0.074180    0.036933
   -0.009003   -0.002655    0.015210
   -0.009101   -0.002218    0.025877
   -0.010157   -0.002286    0.030325
   -0.009584   -0.001850    0.007978
   -0.009051   -0.002608    0.004671
   -0.013819   -0.005631    0.056268
   -0.012677   -0.001841   -0.026602
    0.006169   -0.002422   -0.086714
   -0.040264    0.002048    0.010406
   -0.007575   -0.005359    0.031150
   -0.009380   -0.005242    0.012868
   -0.009516   -0.004001    0.006227
   -0.004049   -0.004273    0.004573
   -0.006556   -0.004493    0.035388
   -0.015518   -0.001271    0.004787
    0.037884   -0.008058   -0.013839
    0.075259   -0.006010    0.013955
   -0.007509   -0.005211    0.008768
   -0.005969   -0.005410    0.034533
   -0.006102   -0.005545    0.025989
   -0.008493   -0.005323   -0.010104
   -0.009123   -0.005087   -0.017133
   -0.003632   -0.005920    0.057905
   -0.010920   -0.003301   -0.040308
   -0.013376   -0.000128   -0.065730
   -0.010432   -0.004166   -0.035460
    0.014613    0.004626   -0.022761
    0.040488    0.008506   -0.034692
    0.006976    0.011099    0.005369
    0.031649    0.025447    0.021714
   -0.009098   -0.000019    0.022168
   -0.008811   -0.006697   -0.011149
   -0.005730   -0.004519    0.055667
   -0.021126   -0.003275    0.005906
   -0.018264   -0.002683   -0.044478
    0.025484   -0.025938   -0.045379
    0.023877   -0.026211   -0.051380
    0.034757   -0.026415   -0.016843
    0.070376    0.006942   -0.022059
    0.008081    0.009728   -0.010820
   -0.008650    0.092891    0.048052
    0.055402    0.089962    0.051972
   -0.001268   -0.005525    0.049792
   -0.002839   -0.010349    0.080552
   -0.041571   -0.004631    0.060771
   -0.069181    0.008807    0.031324
   -0.054763    0.009617   -0.011555
   -0.014808   -0.009853    0.036598
   -0.007777   -0.003410    0.004577
   -0.025058   -0.003556   -0.014126
   -0.015833   -0.000819    0.007450
   -0.019033    0.000464    0.005931
   -0.015953   -0.001527   -0.000236
    0.042115   -0.012210   -0.044640
    0.037011   -0.008577   -0.018450
    0.069665    0.003995    0.038878
    0.084125   -0.004720    0.023086
    0.099870   -0.015695    0.000013
    0.039537   -0.000232    0.087534
   -0.003741   -0.005085    0.023337
   -0.044761   -0.012894    0.089850
   -0.021589   -0.006239   -0.023070
    0.013045    0.037943    0.045304
    0.060987    0.034810    0.029227
    0.039249    0.014581    0.003189
    0.064934    0.079551    0.043731
vibration 9
    0.004364   -0.000376    0.048335
    0.007655   -0.002405    0.034893
    0.002556   -0.007519   -0.004615
   -0.000149   -0.000116    0.033940
    0.002680   -0.001880   -0.014364
    0.007844   -0.002266    0.039891
    0.007729   -0.003253    0.033628
    0.004686   -0.005938    0.007919
    0.011592   -0.017097   -0.020591
    0.006482   -0.007290    0.010273
    0.060905   -0.054034   -0.037084